    -----------------------------------------------------------------------
          Psi4: An Open-Source Ab Initio Electronic Structure Package
                              Psi4 (no tag) Driver

    J. M. Turney, A. C. Simmonett, R. M. Parrish, E. G. Hohenstein,
    F. A. Evangelista, J. T. Fermann, B. J. Mintz, L. A. Burns, J. J. Wilke,
    M. L. Abrams, N. J. Russ, M. L. Leininger, C. L. Janssen, E. T. Seidl,
    W. D. Allen, H. F. Schaefer, R. A. King, E. F. Valeev, C. D. Sherrill,
    and T. D. Crawford, WIREs Comput. Mol. Sci. 2, 556-565 (2012)
    (doi: 10.1002/wcms.93)

                         Additional Contributions by
    A. E. DePrince, M. Saitow, U. Bozkaya, A. Yu. Sokolov
    -----------------------------------------------------------------------


    Psi4 started on: Sun Nov 19 15:37:43 2017

    Process ID:  26460
    PSI4DATADIR: /usr/share/psi
    Memory level set to 256.000 MB

  ==> Input File <==

--------------------------------------------------------------------------
#! ADC/6-31G** on H2O

memory 250 mb

molecule h2o {
O       0.0000 	 0.000    0.222
H       0.0000 	 1.431 	 -0.887
H       0.0000 	-1.431   -0.887
units au
symmetry c1
}

set {
    reference rhf
    basis 6-31G
    guess core
    print 0
    SCF_TYPE PK
}

energy('scf')
--------------------------------------------------------------------------

  Memory set to 250.000 MiB by Python script.

*** tstart() called on ludger-InfinityBook13V3
*** at Sun Nov 19 15:37:44 2017

    There are an even number of electrons - assuming singlet.
    Specify the multiplicity with the MULTP option in the
    input if this is incorrect


         ---------------------------------------------------------
                                   SCF
            by Justin Turney, Rob Parrish, and Andy Simmonett
                              RHF Reference
                        1 Threads,    250 MiB Core
         ---------------------------------------------------------

  ==> Geometry <==

    Molecular point group: c1
    Full point group: C2v

    Geometry (in Bohr), charge = 0, multiplicity = 1:

       Center              X                  Y                   Z       
    ------------   -----------------  -----------------  -----------------
           O          0.000000000000     0.000000000000     0.124113594459
           H          0.000000000000     1.431000000000    -0.984886405541
           H          0.000000000000    -1.431000000000    -0.984886405541

  Running in c1 symmetry.

  Rotational constants: A =     27.34396  B =     14.58478  C =      9.51151 [cm^-1]
  Rotational constants: A = 819751.28885  B = 437240.64842  C = 285147.87920 [MHz]
  Nuclear repulsion =    9.187105388734121

  Charge       = 0
  Multiplicity = 1
  Electrons    = 10
  Nalpha       = 5
  Nbeta        = 5

  ==> Algorithm <==

  SCF Algorithm Type is PK.
  DIIS enabled.
  MOM disabled.
  Fractional occupation disabled.
  Guess Type is CORE.
  Energy threshold   = 1.00e-06
  Density threshold  = 1.00e-06
  Integral threshold = 0.00e+00

  ==> Primary Basis <==

  Starting with a DF guess...

 OEINTS: Overlap, kinetic, potential, dipole, and quadrupole integrals
         stored in file 35.

  ==> Iterations <==

                           Total Energy        Delta E     RMS |[F,P]|

   @DF-RHF iter   1:   -69.62319744119768   -6.96232e+01   1.98227e-01 
   @DF-RHF iter   2:   -70.82733850743847   -1.20414e+00   1.82656e-01 DIIS
   @DF-RHF iter   3:   -75.87075188770565   -5.04341e+00   3.93291e-02 DIIS
   @DF-RHF iter   4:   -75.97798511770081   -1.07233e-01   7.52138e-03 DIIS
   @DF-RHF iter   5:   -75.98373823486153   -5.75312e-03   1.19195e-03 DIIS
   @DF-RHF iter   6:   -75.98392327363079   -1.85039e-04   3.55530e-04 DIIS
   @DF-RHF iter   7:   -75.98394279691715   -1.95233e-05   1.33402e-04 DIIS
   @DF-RHF iter   8:   -75.98394399834120   -1.20142e-06   1.22733e-05 DIIS
   @DF-RHF iter   9:   -75.98394401965896   -2.13178e-08   2.74717e-06 DIIS
   @DF-RHF iter  10:   -75.98394402047555   -8.16584e-10   3.45123e-07 DIIS

  DF guess converged.

 MINTS: Wrapper to libmints.
   by Justin Turney

   Calculation information:
      Number of atoms:                   3
      Number of AO shells:               9
      Number of SO shells:               9
      Number of primitives:             22
      Number of atomic orbitals:        13
      Number of basis functions:        13

      Number of irreps:                  1
      Integral cutoff                 0.00e+00
      Number of functions per irrep: [  13 ]

 OEINTS: Overlap, kinetic, potential, dipole, and quadrupole integrals
         stored in file 35.

      Computing two-electron integrals...done
      Computed 2269 non-zero two-electron integrals.
        Stored in file 33.

	Batch   1 pq = [       0,      91] index = [             0,4186]
   @RHF iter  11:   -75.98395911962378   -1.50991e-05   1.00458e-06 DIIS
   @RHF iter  12:   -75.98395911972925   -1.05473e-10   2.26841e-07 DIIS

  ==> Post-Iterations <==

  Energy converged.

  @RHF Final Energy:   -75.98395911972925

   => Energetics <=

    Nuclear Repulsion Energy =              9.1871053887341212
    One-Electron Energy =                -122.9655914682508495
    Two-Electron Energy =                  37.7945269597874471
    DFT Exchange-Correlation Energy =       0.0000000000000000
    Empirical Dispersion Energy =           0.0000000000000000
    PCM Polarization Energy =               0.0000000000000000
    EFP Energy =                            0.0000000000000000
    Total Energy =                        -75.9839591197292776

    Alert: EFP and PCM quantities not currently incorporated into SCF psivars.
*** tstop() called on ludger-InfinityBook13V3 at Sun Nov 19 15:37:44 2017
Module time:
	user time   =       0.22 seconds =       0.00 minutes
	system time =       0.00 seconds =       0.00 minutes
	total time  =          0 seconds =       0.00 minutes
Total time:
	user time   =       0.22 seconds =       0.00 minutes
	system time =       0.00 seconds =       0.00 minutes
	total time  =          0 seconds =       0.00 minutes

*** PSI4 exiting successfully. Buy a developer a beer!
