    -----------------------------------------------------------------------
          Psi4: An Open-Source Ab Initio Electronic Structure Package
                              Psi4 (no tag) Driver

    J. M. Turney, A. C. Simmonett, R. M. Parrish, E. G. Hohenstein,
    F. A. Evangelista, J. T. Fermann, B. J. Mintz, L. A. Burns, J. J. Wilke,
    M. L. Abrams, N. J. Russ, M. L. Leininger, C. L. Janssen, E. T. Seidl,
    W. D. Allen, H. F. Schaefer, R. A. King, E. F. Valeev, C. D. Sherrill,
    and T. D. Crawford, WIREs Comput. Mol. Sci. 2, 556-565 (2012)
    (doi: 10.1002/wcms.93)

                         Additional Contributions by
    A. E. DePrince, M. Saitow, U. Bozkaya, A. Yu. Sokolov
    -----------------------------------------------------------------------


    Psi4 started on: Fri Nov 10 12:41:41 2017

    Process ID:   2844
    PSI4DATADIR: /usr/share/psi
    Memory level set to 256.000 MB

  ==> Input File <==

--------------------------------------------------------------------------
#! ADC/6-31G** on H2O

memory 250 mb

molecule Ne {
    Ne
    symmetry c1
}

set {
    reference rhf
    basis 6-31G
    guess core
    print 5
    SCF_TYPE PK
}

energy('scf')
--------------------------------------------------------------------------

  Memory set to 250.000 MiB by Python script.

*** tstart() called on ludger-InfinityBook13V3
*** at Fri Nov 10 12:41:41 2017

   => Loading Basis Set <=

    Role: BASIS
    Keyword: BASIS
    Name: 6-31G
    atoms 1 entry NE         line   142 file /usr/share/psi/basis/6-31g.gbs

    There are an even number of electrons - assuming singlet.
    Specify the multiplicity with the MULTP option in the
    input if this is incorrect


         ---------------------------------------------------------
                                   SCF
            by Justin Turney, Rob Parrish, and Andy Simmonett
                              RHF Reference
                        1 Threads,    250 MiB Core
         ---------------------------------------------------------

  ==> Geometry <==

    Molecular point group: c1
    Geometry (in Angstrom), charge = 0, multiplicity = 1:

       Center              X                  Y                   Z       
    ------------   -----------------  -----------------  -----------------
          NE          0.000000000000     0.000000000000     0.000000000000

          NE
              BASIS           6-31G                93b76724c41c210f8f56ba78332d20350a48c691

  Running in c1 symmetry.

  Rotational constants: A = ************  B = ************  C = ************ [cm^-1]
  Rotational constants: A = ************  B = ************  C = ************ [MHz]
  Nuclear repulsion =    0.000000000000000

  Charge       = 0
  Multiplicity = 1
  Electrons    = 10
  Nalpha       = 5
  Nbeta        = 5

  ==> Algorithm <==

  SCF Algorithm Type is PK.
  DIIS enabled.
  MOM disabled.
  Fractional occupation disabled.
  Guess Type is CORE.
  Energy threshold   = 1.00e-06
  Density threshold  = 1.00e-06
  Integral threshold = 0.00e+00

  ==> Primary Basis <==

  -AO BASIS SET INFORMATION:
    Name                   = 6-31G
    Total number of shells = 5
    Number of primitives   = 14
    Number of AO           = 9
    Number of SO           = 9
    Maximum AM             = 1
    Spherical Harmonics    = FALSE

  -Contraction Scheme:
    Atom   Type   All Primitives // Shells:
   ------ ------ --------------------------
       1    NE     10s 4p // 3s 2p 

  ==> AO Basis Functions <==

    [ 6-31G ]
    cartesian
    ****
   NE   1
    S   6 1.00
                      8425.85153000           0.00188435
                      1268.51940000           0.01433690
                       289.62141400           0.07010962
                        81.85900400           0.23737327
                        26.25150790           0.47300713
                         9.09472051           0.34840124
    S   3 1.00
                        26.53213100          -0.10711829
                         6.10175501          -0.14616382
                         1.69627153           1.12777350
    P   3 1.00
                        26.53213100           0.07190959
                         6.10175501           0.34951337
                         1.69627153           0.71994051
    S   1 1.00
                         0.44581870           1.00000000
    P   1 1.00
                         0.44581870           1.00000000
    ****

  ==> Pre-Iterations <==

   -------------------------------------------------------
    Irrep   Nso     Nmo     Nalpha   Nbeta   Ndocc  Nsocc
   -------------------------------------------------------
     A          9       9       0       0       0       0
   -------------------------------------------------------
    Total       9       9       5       5       5       0
   -------------------------------------------------------

  Starting with a DF guess...

   => Loading Basis Set <=

    Role: BASIS
    Keyword: BASIS
    Name: 6-31G
    atoms 1 entry NE         line   142 file /usr/share/psi/basis/6-31g.gbs

 OEINTS: Overlap, kinetic, potential, dipole, and quadrupole integrals
         stored in file 35.

  ==> Integral Setup <==

   => Loading Basis Set <=

    Role: BASIS
    Keyword: BASIS
    Name: 6-31G
    atoms 1 entry NE         line   142 file /usr/share/psi/basis/6-31g.gbs

   => Loading Basis Set <=

    Role: JKFIT
    Keyword: DF_BASIS_SCF
    Name: 
    atoms 1 entry NE         line   320 file /usr/share/psi/basis/cc-pvdz-jkfit.gbs

  ==> DFJK: Density-Fitted J/K Matrices <==

    J tasked:                  Yes
    K tasked:                  Yes
    wK tasked:                  No
    OpenMP threads:              1
    Integrals threads:           1
    Memory (MB):               178
    Algorithm:                Core
    Integral Cache:           NONE
    Schwarz Cutoff:          1E-12
    Fitting Condition:       1E-12

   => Auxiliary Basis Set <=

  -AO BASIS SET INFORMATION:
    Name                   = 
    Total number of shells = 24
    Number of primitives   = 24
    Number of AO           = 81
    Number of SO           = 81
    Maximum AM             = 3
    Spherical Harmonics    = FALSE

  -Contraction Scheme:
    Atom   Type   All Primitives // Shells:
   ------ ------ --------------------------
       1    NE     10s 7p 5d 2f // 10s 7p 5d 2f 

  ==> AO Basis Functions <==

    [  ]
    cartesian
    ****
   NE   1
    S   1 1.00
                      2252.26550000           1.00000000
    S   1 1.00
                       757.83210000           1.00000000
    S   1 1.00
                       279.12690000           1.00000000
    S   1 1.00
                       100.57610000           1.00000000
    S   1 1.00
                        39.89140000           1.00000000
    S   1 1.00
                        15.65300000           1.00000000
    S   1 1.00
                         6.85330000           1.00000000
    S   1 1.00
                         2.83990000           1.00000000
    S   1 1.00
                         1.23040000           1.00000000
    S   1 1.00
                         0.50530000           1.00000000
    P   1 1.00
                       187.28110000           1.00000000
    P   1 1.00
                        56.37130000           1.00000000
    P   1 1.00
                        20.99050000           1.00000000
    P   1 1.00
                         8.39240000           1.00000000
    P   1 1.00
                         3.30420000           1.00000000
    P   1 1.00
                         1.34900000           1.00000000
    P   1 1.00
                         0.54770000           1.00000000
    D   1 1.00
                        30.69630000           1.00000000
    D   1 1.00
                         9.30490000           1.00000000
    D   1 1.00
                         3.46450000           1.00000000
    D   1 1.00
                         1.34670000           1.00000000
    D   1 1.00
                         0.52130000           1.00000000
    F   1 1.00
                         4.17690000           1.00000000
    F   1 1.00
                         1.34190000           1.00000000
    ****

  ## One-electron Hamiltonion (Symmetry 0) ##
  Irrep: 1 Size: 9 x 9

                 1                   2                   3                   4                   5

    1   -49.93520935710503   -11.96532889397581     0.00000000000000     0.00000000000000     0.00000000000000
    2   -11.96532889397581   -14.22978608655717     0.00000000000000     0.00000000000000     0.00000000000000
    3     0.00000000000000     0.00000000000000   -11.74960517178975     0.00000000000000     0.00000000000000
    4     0.00000000000000     0.00000000000000     0.00000000000000   -11.74960517178975     0.00000000000000
    5     0.00000000000000     0.00000000000000     0.00000000000000     0.00000000000000   -11.74960517178975
    6    -8.39306758845277   -10.51825504782221     0.00000000000000     0.00000000000000     0.00000000000000
    7     0.00000000000000     0.00000000000000    -5.12182557869075     0.00000000000000     0.00000000000000
    8     0.00000000000000     0.00000000000000     0.00000000000000    -5.12182557869075     0.00000000000000
    9     0.00000000000000     0.00000000000000     0.00000000000000     0.00000000000000    -5.12182557869075

                 6                   7                   8                   9

    1    -8.39306758845277     0.00000000000000     0.00000000000000     0.00000000000000
    2   -10.51825504782221     0.00000000000000     0.00000000000000     0.00000000000000
    3     0.00000000000000    -5.12182557869075     0.00000000000000     0.00000000000000
    4     0.00000000000000     0.00000000000000    -5.12182557869075     0.00000000000000
    5     0.00000000000000     0.00000000000000     0.00000000000000    -5.12182557869075
    6    -9.98616752548474     0.00000000000000     0.00000000000000     0.00000000000000
    7     0.00000000000000    -5.98871696698983     0.00000000000000     0.00000000000000
    8     0.00000000000000     0.00000000000000    -5.98871696698983     0.00000000000000
    9     0.00000000000000     0.00000000000000     0.00000000000000    -5.98871696698983



  Minimum eigenvalue in the overlap matrix is 2.3675296612E-01.
  Using Symmetric Orthogonalization.
  ## S (Symmetry 0) ##
  Irrep: 1 Size: 9 x 9

                 1                   2                   3                   4                   5

    1     1.00000000000000     0.24901800918069     0.00000000000000     0.00000000000000     0.00000000000000
    2     0.24901800918069     1.00000000000000     0.00000000000000     0.00000000000000     0.00000000000000
    3     0.00000000000000     0.00000000000000     1.00000000000000     0.00000000000000     0.00000000000000
    4     0.00000000000000     0.00000000000000     0.00000000000000     1.00000000000000     0.00000000000000
    5     0.00000000000000     0.00000000000000     0.00000000000000     0.00000000000000     1.00000000000000
    6     0.17191310888028     0.75903090555022     0.00000000000000     0.00000000000000     0.00000000000000
    7     0.00000000000000     0.00000000000000     0.49298190494969     0.00000000000000     0.00000000000000
    8     0.00000000000000     0.00000000000000     0.00000000000000     0.49298190494969     0.00000000000000
    9     0.00000000000000     0.00000000000000     0.00000000000000     0.00000000000000     0.49298190494969

                 6                   7                   8                   9

    1     0.17191310888028     0.00000000000000     0.00000000000000     0.00000000000000
    2     0.75903090555022     0.00000000000000     0.00000000000000     0.00000000000000
    3     0.00000000000000     0.49298190494969     0.00000000000000     0.00000000000000
    4     0.00000000000000     0.00000000000000     0.49298190494969     0.00000000000000
    5     0.00000000000000     0.00000000000000     0.00000000000000     0.49298190494969
    6     1.00000000000000     0.00000000000000     0.00000000000000     0.00000000000000
    7     0.00000000000000     1.00000000000000     0.00000000000000     0.00000000000000
    8     0.00000000000000     0.00000000000000     1.00000000000000     0.00000000000000
    9     0.00000000000000     0.00000000000000     0.00000000000000     1.00000000000000



  ## X (Symmetry 0) ##
  Irrep: 1 Size: 9 x 9

                 1                   2                   3                   4                   5

    1     1.02505914592065    -0.12611269780719     0.00000000000000     0.00000000000000     0.00000000000000
    2    -0.12611269780719     1.41989553316898     0.00000000000000     0.00000000000000     0.00000000000000
    3     0.00000000000000     0.00000000000000     1.11140257297161     0.00000000000000     0.00000000000000
    4     0.00000000000000     0.00000000000000     0.00000000000000     1.11140257297161     0.00000000000000
    5     0.00000000000000     0.00000000000000     0.00000000000000     0.00000000000000     1.11140257297161
    6    -0.01559923338362    -0.64079855261329     0.00000000000000     0.00000000000000     0.00000000000000
    7     0.00000000000000     0.00000000000000    -0.29298917969186     0.00000000000000     0.00000000000000
    8     0.00000000000000     0.00000000000000     0.00000000000000    -0.29298917969186     0.00000000000000
    9     0.00000000000000     0.00000000000000     0.00000000000000     0.00000000000000    -0.29298917969186

                 6                   7                   8                   9

    1    -0.01559923338362     0.00000000000000     0.00000000000000     0.00000000000000
    2    -0.64079855261329     0.00000000000000     0.00000000000000     0.00000000000000
    3     0.00000000000000    -0.29298917969186     0.00000000000000     0.00000000000000
    4     0.00000000000000     0.00000000000000    -0.29298917969186     0.00000000000000
    5     0.00000000000000     0.00000000000000     0.00000000000000    -0.29298917969186
    6     1.39644993197244     0.00000000000000     0.00000000000000     0.00000000000000
    7     0.00000000000000     1.11140257297161     0.00000000000000     0.00000000000000
    8     0.00000000000000     0.00000000000000     1.11140257297161     0.00000000000000
    9     0.00000000000000     0.00000000000000     0.00000000000000     1.11140257297161



  SCF Guess: Core (One-Electron) Hamiltonian.

  ## C (Symmetry 0) ##
  Irrep: 1 Size: 9 x 9

                 1                   2                   3                   4                   5

    1     1.00336857416509     0.24491609789131    -0.00000000000000    -0.00000000000000     0.00000000000000
    2    -0.02009475087299    -1.07704809412849     0.00000000000000     0.00000000000000    -0.00000000000000
    3     0.00000000000000    -0.00000000000000    -0.00683106140096    -0.00000000000000     1.05724747218871
    4    -0.00000000000000    -0.00000000000000    -1.05724747218871     0.00000000000000    -0.00683106140096
    5     0.00000000000000    -0.00000000000000    -0.00000000000000    -1.05726954030147    -0.00000000000000
    6     0.00893385742428     0.05943574448825    -0.00000000000000    -0.00000000000000    -0.00000000000000
    7     0.00000000000000     0.00000000000000     0.00083336283533     0.00000000000000    -0.12898006610539
    8     0.00000000000000     0.00000000000000     0.12898006610539    -0.00000000000000     0.00083336283533
    9    -0.00000000000000     0.00000000000000     0.00000000000000     0.12898275832904     0.00000000000000

                 6                   7                   8                   9

    1    -0.01271261725833    -0.00000000000000    -0.00000000000000    -0.00000000000000
    2     1.13234011083872     0.00000000000001     0.00000000000000    -0.00000000000000
    3    -0.00000000000000     0.43872315975676     0.00595322832461    -0.10356643249963
    4    -0.00000000000000     0.10333188559874     0.01467786875919     0.43857329987407
    5     0.00000000000000    -0.00916342112929     0.45054253630078    -0.01291946097963
    6    -1.53535862653906    -0.00000000000001    -0.00000000000000     0.00000000000000
    7     0.00000000000001    -1.11146443130863    -0.01508195176641     0.26237595039360
    8     0.00000000000000    -0.26178174757570    -0.03718501905006    -1.11108477519617
    9    -0.00000000000000     0.02321467747441    -1.14140772547211     0.03273025604233



  ## C (Symmetry 0) ##
  Irrep: 1 Size: 9 x 9

                 1                   2                   3                   4                   5

    1     1.00336857416509     0.24491609789131    -0.00000000000000    -0.00000000000000     0.00000000000000
    2    -0.02009475087299    -1.07704809412849     0.00000000000000     0.00000000000000    -0.00000000000000
    3     0.00000000000000    -0.00000000000000    -0.00683106140096    -0.00000000000000     1.05724747218871
    4    -0.00000000000000    -0.00000000000000    -1.05724747218871     0.00000000000000    -0.00683106140096
    5     0.00000000000000    -0.00000000000000    -0.00000000000000    -1.05726954030147    -0.00000000000000
    6     0.00893385742428     0.05943574448825    -0.00000000000000    -0.00000000000000    -0.00000000000000
    7     0.00000000000000     0.00000000000000     0.00083336283533     0.00000000000000    -0.12898006610539
    8     0.00000000000000     0.00000000000000     0.12898006610539    -0.00000000000000     0.00083336283533
    9    -0.00000000000000     0.00000000000000     0.00000000000000     0.12898275832904     0.00000000000000

                 6                   7                   8                   9

    1    -0.01271261725833    -0.00000000000000    -0.00000000000000    -0.00000000000000
    2     1.13234011083872     0.00000000000001     0.00000000000000    -0.00000000000000
    3    -0.00000000000000     0.43872315975676     0.00595322832461    -0.10356643249963
    4    -0.00000000000000     0.10333188559874     0.01467786875919     0.43857329987407
    5     0.00000000000000    -0.00916342112929     0.45054253630078    -0.01291946097963
    6    -1.53535862653906    -0.00000000000001    -0.00000000000000     0.00000000000000
    7     0.00000000000001    -1.11146443130863    -0.01508195176641     0.26237595039360
    8     0.00000000000000    -0.26178174757570    -0.03718501905006    -1.11108477519617
    9    -0.00000000000000     0.02321467747441    -1.14140772547211     0.03273025604233



  ## SCF density (Symmetry 0) ##
  Irrep: 1 Size: 9 x 9

                 1                   2                   3                   4                   5

    1     1.06673239062839    -0.28394885798686    -0.00000000000000    -0.00000000000000     0.00000000000000
    2    -0.28394885798686     1.16043639607846     0.00000000000000    -0.00000000000000    -0.00000000000000
    3    -0.00000000000000     0.00000000000000     1.11781888084928    -0.00000000000000     0.00000000000000
    4    -0.00000000000000    -0.00000000000000    -0.00000000000000     1.11781888084928    -0.00000000000000
    5     0.00000000000000    -0.00000000000000     0.00000000000000    -0.00000000000000     1.11781888084928
    6     0.02352072240092    -0.06419467896345    -0.00000000000000     0.00000000000000     0.00000000000000
    7     0.00000000000000    -0.00000000000000    -0.13636954160536     0.00000000000000    -0.00000000000000
    8     0.00000000000000     0.00000000000000     0.00000000000000    -0.13636954160536     0.00000000000000
    9    -0.00000000000000     0.00000000000000    -0.00000000000000     0.00000000000000    -0.13636954160536

                 6                   7                   8                   9

    1     0.02352072240092     0.00000000000000     0.00000000000000    -0.00000000000000
    2    -0.06419467896345    -0.00000000000000     0.00000000000000     0.00000000000000
    3    -0.00000000000000    -0.13636954160536     0.00000000000000    -0.00000000000000
    4     0.00000000000000     0.00000000000000    -0.13636954160536     0.00000000000000
    5     0.00000000000000    -0.00000000000000     0.00000000000000    -0.13636954160536
    6     0.00361242153135     0.00000000000000    -0.00000000000000    -0.00000000000000
    7     0.00000000000000     0.01663655194617    -0.00000000000000     0.00000000000000
    8    -0.00000000000000    -0.00000000000000     0.01663655194617    -0.00000000000000
    9    -0.00000000000000     0.00000000000000    -0.00000000000000     0.01663655194617



  ## SCF density (Symmetry 0) ##
  Irrep: 1 Size: 9 x 9

                 1                   2                   3                   4                   5

    1     1.06673239062839    -0.28394885798686    -0.00000000000000    -0.00000000000000     0.00000000000000
    2    -0.28394885798686     1.16043639607846     0.00000000000000    -0.00000000000000    -0.00000000000000
    3    -0.00000000000000     0.00000000000000     1.11781888084928    -0.00000000000000     0.00000000000000
    4    -0.00000000000000    -0.00000000000000    -0.00000000000000     1.11781888084928    -0.00000000000000
    5     0.00000000000000    -0.00000000000000     0.00000000000000    -0.00000000000000     1.11781888084928
    6     0.02352072240092    -0.06419467896345    -0.00000000000000     0.00000000000000     0.00000000000000
    7     0.00000000000000    -0.00000000000000    -0.13636954160536     0.00000000000000    -0.00000000000000
    8     0.00000000000000     0.00000000000000     0.00000000000000    -0.13636954160536     0.00000000000000
    9    -0.00000000000000     0.00000000000000    -0.00000000000000     0.00000000000000    -0.13636954160536

                 6                   7                   8                   9

    1     0.02352072240092     0.00000000000000     0.00000000000000    -0.00000000000000
    2    -0.06419467896345    -0.00000000000000     0.00000000000000     0.00000000000000
    3    -0.00000000000000    -0.13636954160536     0.00000000000000    -0.00000000000000
    4     0.00000000000000     0.00000000000000    -0.13636954160536     0.00000000000000
    5     0.00000000000000    -0.00000000000000     0.00000000000000    -0.13636954160536
    6     0.00361242153135     0.00000000000000    -0.00000000000000    -0.00000000000000
    7     0.00000000000000     0.01663655194617    -0.00000000000000     0.00000000000000
    8    -0.00000000000000    -0.00000000000000     0.01663655194617    -0.00000000000000
    9    -0.00000000000000     0.00000000000000    -0.00000000000000     0.01663655194617



  ## F (Symmetry 0) ##
  Irrep: 1 Size: 9 x 9

                 1                   2                   3                   4                   5

    1   -49.93520935710503   -11.96532889397581     0.00000000000000     0.00000000000000     0.00000000000000
    2   -11.96532889397581   -14.22978608655717     0.00000000000000     0.00000000000000     0.00000000000000
    3     0.00000000000000     0.00000000000000   -11.74960517178975     0.00000000000000     0.00000000000000
    4     0.00000000000000     0.00000000000000     0.00000000000000   -11.74960517178975     0.00000000000000
    5     0.00000000000000     0.00000000000000     0.00000000000000     0.00000000000000   -11.74960517178975
    6    -8.39306758845277   -10.51825504782221     0.00000000000000     0.00000000000000     0.00000000000000
    7     0.00000000000000     0.00000000000000    -5.12182557869075     0.00000000000000     0.00000000000000
    8     0.00000000000000     0.00000000000000     0.00000000000000    -5.12182557869075     0.00000000000000
    9     0.00000000000000     0.00000000000000     0.00000000000000     0.00000000000000    -5.12182557869075

                 6                   7                   8                   9

    1    -8.39306758845277     0.00000000000000     0.00000000000000     0.00000000000000
    2   -10.51825504782221     0.00000000000000     0.00000000000000     0.00000000000000
    3     0.00000000000000    -5.12182557869075     0.00000000000000     0.00000000000000
    4     0.00000000000000     0.00000000000000    -5.12182557869075     0.00000000000000
    5     0.00000000000000     0.00000000000000     0.00000000000000    -5.12182557869075
    6    -9.98616752548474     0.00000000000000     0.00000000000000     0.00000000000000
    7     0.00000000000000    -5.98871696698983     0.00000000000000     0.00000000000000
    8     0.00000000000000     0.00000000000000    -5.98871696698983     0.00000000000000
    9     0.00000000000000     0.00000000000000     0.00000000000000    -5.98871696698983



  ## F (Symmetry 0) ##
  Irrep: 1 Size: 9 x 9

                 1                   2                   3                   4                   5

    1   -49.93520935710503   -11.96532889397581     0.00000000000000     0.00000000000000     0.00000000000000
    2   -11.96532889397581   -14.22978608655717     0.00000000000000     0.00000000000000     0.00000000000000
    3     0.00000000000000     0.00000000000000   -11.74960517178975     0.00000000000000     0.00000000000000
    4     0.00000000000000     0.00000000000000     0.00000000000000   -11.74960517178975     0.00000000000000
    5     0.00000000000000     0.00000000000000     0.00000000000000     0.00000000000000   -11.74960517178975
    6    -8.39306758845277   -10.51825504782221     0.00000000000000     0.00000000000000     0.00000000000000
    7     0.00000000000000     0.00000000000000    -5.12182557869075     0.00000000000000     0.00000000000000
    8     0.00000000000000     0.00000000000000     0.00000000000000    -5.12182557869075     0.00000000000000
    9     0.00000000000000     0.00000000000000     0.00000000000000     0.00000000000000    -5.12182557869075

                 6                   7                   8                   9

    1    -8.39306758845277     0.00000000000000     0.00000000000000     0.00000000000000
    2   -10.51825504782221     0.00000000000000     0.00000000000000     0.00000000000000
    3     0.00000000000000    -5.12182557869075     0.00000000000000     0.00000000000000
    4     0.00000000000000     0.00000000000000    -5.12182557869075     0.00000000000000
    5     0.00000000000000     0.00000000000000     0.00000000000000    -5.12182557869075
    6    -9.98616752548474     0.00000000000000     0.00000000000000     0.00000000000000
    7     0.00000000000000    -5.98871696698983     0.00000000000000     0.00000000000000
    8     0.00000000000000     0.00000000000000    -5.98871696698983     0.00000000000000
    9     0.00000000000000     0.00000000000000     0.00000000000000    -5.98871696698983



  ==> Iterations <==

                           Total Energy        Delta E     RMS |[F,P]|

  ## F (Symmetry 0) ##
  Irrep: 1 Size: 9 x 9

                 1                   2                   3                   4                   5

    1   -29.10003894829877    -7.99011484246117    -0.00000000000000     0.00000000000001     0.00000000000000
    2    -7.99011484246117    -2.21881254966544    -0.00000000000000     0.00000000000000     0.00000000000000
    3    -0.00000000000000    -0.00000000000000     1.08904548599494    -0.00000000000000    -0.00000000000000
    4     0.00000000000001     0.00000000000000    -0.00000000000000     1.08904548599050    -0.00000000000000
    5     0.00000000000000     0.00000000000000    -0.00000000000000    -0.00000000000000     1.08904548599004
    6    -5.44176875062479    -2.32025167390620    -0.00000000000000     0.00000000000000    -0.00000000000000
    7    -0.00000000000000     0.00000000000000    -0.33459220892281    -0.00000000000000    -0.00000000000000
    8     0.00000000000000     0.00000000000000    -0.00000000000000    -0.33459220892131    -0.00000000000000
    9    -0.00000000000000    -0.00000000000000    -0.00000000000000    -0.00000000000000    -0.33459220892163

                 6                   7                   8                   9

    1    -5.44176875062479    -0.00000000000000     0.00000000000000    -0.00000000000000
    2    -2.32025167390620     0.00000000000000     0.00000000000000    -0.00000000000000
    3    -0.00000000000000    -0.33459220892281    -0.00000000000000    -0.00000000000000
    4     0.00000000000000    -0.00000000000000    -0.33459220892131    -0.00000000000000
    5    -0.00000000000000    -0.00000000000000    -0.00000000000000    -0.33459220892163
    6    -1.43110847902163     0.00000000000000    -0.00000000000000     0.00000000000000
    7     0.00000000000000     0.74032251803234    -0.00000000000000    -0.00000000000000
    8    -0.00000000000000    -0.00000000000000     0.74032251803084    -0.00000000000000
    9     0.00000000000000    -0.00000000000000    -0.00000000000000     0.74032251803217



  ## F (Symmetry 0) ##
  Irrep: 1 Size: 9 x 9

                 1                   2                   3                   4                   5

    1   -29.10003894829877    -7.99011484246117    -0.00000000000000     0.00000000000001     0.00000000000000
    2    -7.99011484246117    -2.21881254966544    -0.00000000000000     0.00000000000000     0.00000000000000
    3    -0.00000000000000    -0.00000000000000     1.08904548599494    -0.00000000000000    -0.00000000000000
    4     0.00000000000001     0.00000000000000    -0.00000000000000     1.08904548599050    -0.00000000000000
    5     0.00000000000000     0.00000000000000    -0.00000000000000    -0.00000000000000     1.08904548599004
    6    -5.44176875062479    -2.32025167390620    -0.00000000000000     0.00000000000000    -0.00000000000000
    7    -0.00000000000000     0.00000000000000    -0.33459220892281    -0.00000000000000    -0.00000000000000
    8     0.00000000000000     0.00000000000000    -0.00000000000000    -0.33459220892131    -0.00000000000000
    9    -0.00000000000000    -0.00000000000000    -0.00000000000000    -0.00000000000000    -0.33459220892163

                 6                   7                   8                   9

    1    -5.44176875062479    -0.00000000000000     0.00000000000000    -0.00000000000000
    2    -2.32025167390620     0.00000000000000     0.00000000000000    -0.00000000000000
    3    -0.00000000000000    -0.33459220892281    -0.00000000000000    -0.00000000000000
    4     0.00000000000000    -0.00000000000000    -0.33459220892131    -0.00000000000000
    5    -0.00000000000000    -0.00000000000000    -0.00000000000000    -0.33459220892163
    6    -1.43110847902163     0.00000000000000    -0.00000000000000     0.00000000000000
    7     0.00000000000000     0.74032251803234    -0.00000000000000    -0.00000000000000
    8    -0.00000000000000    -0.00000000000000     0.74032251803084    -0.00000000000000
    9     0.00000000000000    -0.00000000000000    -0.00000000000000     0.74032251803217



    Occupation by irrep:
              A 
    DOCC [     5 ]

  ## C (Symmetry 0) ##
  Irrep: 1 Size: 9 x 9

                 1                   2                   3                   4                   5

    1     0.99276684445098    -0.23984477748062    -0.00000000000000    -0.00000000000000    -0.00000000000000
    2     0.03322511121913     0.41236443945004     0.00000000000000     0.00000000000000    -0.00000000000000
    3     0.00000000000000     0.00000000000000    -0.00073654158864     0.00067741979089     0.48149247022661
    4    -0.00000000000000    -0.00000000000000    -0.48148583110887    -0.00261871207765    -0.00073284712302
    5    -0.00000000000000     0.00000000000000    -0.00261767536941     0.48148591228246    -0.00068141483632
    6    -0.00812594669473     0.67456681074193    -0.00000000000000    -0.00000000000000     0.00000000000000
    7     0.00000000000000    -0.00000000000000    -0.00102590428002     0.00094355549444     0.67065484640849
    8     0.00000000000000    -0.00000000000000    -0.67064559900117    -0.00364751694953    -0.00102075838175
    9     0.00000000000000    -0.00000000000000    -0.00364607295309     0.67064571206388    -0.00094912006033

                 6                   7                   8                   9

    1     0.00000000000000     0.00000000000001     0.00000000000001    -0.15421568188761
    2    -0.00000000000005    -0.00000000000008    -0.00000000000007     1.50714371702046
    3    -0.00014081929006     0.00004359973750    -1.04365814164285    -0.00000000000005
    4    -1.04365758025587    -0.00108337672546     0.00014077395529    -0.00000000000003
    5    -0.00108337083370     1.04365758883906     0.00004374589207     0.00000000000006
    6     0.00000000000004     0.00000000000008     0.00000000000006    -1.38051878670848
    7     0.00012594541815    -0.00003899456650     0.93342297778330     0.00000000000004
    8     0.93342247569264     0.00096894633290    -0.00012590487182     0.00000000000003
    9     0.00096894106345    -0.93342248336984    -0.00003912528366    -0.00000000000005



  ## C (Symmetry 0) ##
  Irrep: 1 Size: 9 x 9

                 1                   2                   3                   4                   5

    1     0.99276684445098    -0.23984477748062    -0.00000000000000    -0.00000000000000    -0.00000000000000
    2     0.03322511121913     0.41236443945004     0.00000000000000     0.00000000000000    -0.00000000000000
    3     0.00000000000000     0.00000000000000    -0.00073654158864     0.00067741979089     0.48149247022661
    4    -0.00000000000000    -0.00000000000000    -0.48148583110887    -0.00261871207765    -0.00073284712302
    5    -0.00000000000000     0.00000000000000    -0.00261767536941     0.48148591228246    -0.00068141483632
    6    -0.00812594669473     0.67456681074193    -0.00000000000000    -0.00000000000000     0.00000000000000
    7     0.00000000000000    -0.00000000000000    -0.00102590428002     0.00094355549444     0.67065484640849
    8     0.00000000000000    -0.00000000000000    -0.67064559900117    -0.00364751694953    -0.00102075838175
    9     0.00000000000000    -0.00000000000000    -0.00364607295309     0.67064571206388    -0.00094912006033

                 6                   7                   8                   9

    1     0.00000000000000     0.00000000000001     0.00000000000001    -0.15421568188761
    2    -0.00000000000005    -0.00000000000008    -0.00000000000007     1.50714371702046
    3    -0.00014081929006     0.00004359973750    -1.04365814164285    -0.00000000000005
    4    -1.04365758025587    -0.00108337672546     0.00014077395529    -0.00000000000003
    5    -0.00108337083370     1.04365758883906     0.00004374589207     0.00000000000006
    6     0.00000000000004     0.00000000000008     0.00000000000006    -1.38051878670848
    7     0.00012594541815    -0.00003899456650     0.93342297778330     0.00000000000004
    8     0.93342247569264     0.00096894633290    -0.00012590487182     0.00000000000003
    9     0.00096894106345    -0.93342248336984    -0.00003912528366    -0.00000000000005



  ## SCF density (Symmetry 0) ##
  Irrep: 1 Size: 9 x 9

                 1                   2                   3                   4                   5

    1     1.04311152472588    -0.06591866839927    -0.00000000000000    -0.00000000000000    -0.00000000000000
    2    -0.06591866839927     0.17114833893847     0.00000000000000    -0.00000000000000     0.00000000000000
    3    -0.00000000000000     0.00000000000000     0.23183600027601    -0.00000000000000    -0.00000000000000
    4    -0.00000000000000    -0.00000000000000    -0.00000000000000     0.23183600027645    -0.00000000000000
    5    -0.00000000000000     0.00000000000000    -0.00000000000000    -0.00000000000000     0.23183600027699
    6    -0.16985849707651     0.27789737930050     0.00000000000000     0.00000000000000    -0.00000000000000
    7     0.00000000000000    -0.00000000000000     0.32291665347101     0.00000000000000     0.00000000000000
    8     0.00000000000000    -0.00000000000000    -0.00000000000000     0.32291665347112     0.00000000000000
    9     0.00000000000000     0.00000000000000    -0.00000000000000    -0.00000000000000     0.32291665347125

                 6                   7                   8                   9

    1    -0.16985849707651     0.00000000000000     0.00000000000000     0.00000000000000
    2     0.27789737930050    -0.00000000000000    -0.00000000000000     0.00000000000000
    3     0.00000000000000     0.32291665347101    -0.00000000000000    -0.00000000000000
    4     0.00000000000000     0.00000000000000     0.32291665347112    -0.00000000000000
    5    -0.00000000000000     0.00000000000000     0.00000000000000     0.32291665347125
    6     0.45510641316422    -0.00000000000000     0.00000000000000    -0.00000000000000
    7    -0.00000000000000     0.44977986578776     0.00000000000000     0.00000000000000
    8     0.00000000000000     0.00000000000000     0.44977986578721     0.00000000000000
    9    -0.00000000000000     0.00000000000000     0.00000000000000     0.44977986578654



  ## SCF density (Symmetry 0) ##
  Irrep: 1 Size: 9 x 9

                 1                   2                   3                   4                   5

    1     1.04311152472588    -0.06591866839927    -0.00000000000000    -0.00000000000000    -0.00000000000000
    2    -0.06591866839927     0.17114833893847     0.00000000000000    -0.00000000000000     0.00000000000000
    3    -0.00000000000000     0.00000000000000     0.23183600027601    -0.00000000000000    -0.00000000000000
    4    -0.00000000000000    -0.00000000000000    -0.00000000000000     0.23183600027645    -0.00000000000000
    5    -0.00000000000000     0.00000000000000    -0.00000000000000    -0.00000000000000     0.23183600027699
    6    -0.16985849707651     0.27789737930050     0.00000000000000     0.00000000000000    -0.00000000000000
    7     0.00000000000000    -0.00000000000000     0.32291665347101     0.00000000000000     0.00000000000000
    8     0.00000000000000    -0.00000000000000    -0.00000000000000     0.32291665347112     0.00000000000000
    9     0.00000000000000     0.00000000000000    -0.00000000000000    -0.00000000000000     0.32291665347125

                 6                   7                   8                   9

    1    -0.16985849707651     0.00000000000000     0.00000000000000     0.00000000000000
    2     0.27789737930050    -0.00000000000000    -0.00000000000000     0.00000000000000
    3     0.00000000000000     0.32291665347101    -0.00000000000000    -0.00000000000000
    4     0.00000000000000     0.00000000000000     0.32291665347112    -0.00000000000000
    5    -0.00000000000000     0.00000000000000     0.00000000000000     0.32291665347125
    6     0.45510641316422    -0.00000000000000     0.00000000000000    -0.00000000000000
    7    -0.00000000000000     0.44977986578776     0.00000000000000     0.00000000000000
    8     0.00000000000000     0.00000000000000     0.44977986578721     0.00000000000000
    9    -0.00000000000000     0.00000000000000     0.00000000000000     0.44977986578654



   @DF-RHF iter   1:  -122.65522313768329   -1.22655e+02   3.59620e-01 
  ## F (Symmetry 0) ##
  Irrep: 1 Size: 9 x 9

                 1                   2                   3                   4                   5

    1   -34.57695168483173    -9.01333967750258    -0.00000000000000     0.00000000000001     0.00000000000000
    2    -9.01333967750258    -4.41471365031027    -0.00000000000000     0.00000000000000     0.00000000000000
    3    -0.00000000000000    -0.00000000000000    -1.17672460355794     0.00000000000000    -0.00000000000000
    4     0.00000000000001     0.00000000000000     0.00000000000000    -1.17672460356239    -0.00000000000000
    5     0.00000000000000     0.00000000000000    -0.00000000000000    -0.00000000000000    -1.17672460356356
    6    -6.20406807600275    -3.93811362298500    -0.00000000000000     0.00000000000000    -0.00000000000000
    7    -0.00000000000000     0.00000000000000    -1.29997431557632    -0.00000000000000    -0.00000000000000
    8     0.00000000000000     0.00000000000000     0.00000000000000    -1.29997431557550    -0.00000000000000
    9    -0.00000000000000    -0.00000000000000    -0.00000000000000    -0.00000000000000    -1.29997431557602

                 6                   7                   8                   9

    1    -6.20406807600275    -0.00000000000000     0.00000000000000    -0.00000000000000
    2    -3.93811362298500     0.00000000000000     0.00000000000000    -0.00000000000000
    3    -0.00000000000000    -1.29997431557632     0.00000000000000    -0.00000000000000
    4     0.00000000000000    -0.00000000000000    -1.29997431557550    -0.00000000000000
    5    -0.00000000000000    -0.00000000000000    -0.00000000000000    -1.29997431557602
    6    -2.96811316034756     0.00000000000000    -0.00000000000000     0.00000000000000
    7     0.00000000000000    -0.21696641577629    -0.00000000000000    -0.00000000000000
    8    -0.00000000000000    -0.00000000000000    -0.21696641577724    -0.00000000000000
    9     0.00000000000000    -0.00000000000000    -0.00000000000000    -0.21696641577643



  ## F (Symmetry 0) ##
  Irrep: 1 Size: 9 x 9

                 1                   2                   3                   4                   5

    1   -34.57695168483173    -9.01333967750258    -0.00000000000000     0.00000000000001     0.00000000000000
    2    -9.01333967750258    -4.41471365031027    -0.00000000000000     0.00000000000000     0.00000000000000
    3    -0.00000000000000    -0.00000000000000    -1.17672460355794     0.00000000000000    -0.00000000000000
    4     0.00000000000001     0.00000000000000     0.00000000000000    -1.17672460356239    -0.00000000000000
    5     0.00000000000000     0.00000000000000    -0.00000000000000    -0.00000000000000    -1.17672460356356
    6    -6.20406807600275    -3.93811362298500    -0.00000000000000     0.00000000000000    -0.00000000000000
    7    -0.00000000000000     0.00000000000000    -1.29997431557632    -0.00000000000000    -0.00000000000000
    8     0.00000000000000     0.00000000000000     0.00000000000000    -1.29997431557550    -0.00000000000000
    9    -0.00000000000000    -0.00000000000000    -0.00000000000000    -0.00000000000000    -1.29997431557602

                 6                   7                   8                   9

    1    -6.20406807600275    -0.00000000000000     0.00000000000000    -0.00000000000000
    2    -3.93811362298500     0.00000000000000     0.00000000000000    -0.00000000000000
    3    -0.00000000000000    -1.29997431557632     0.00000000000000    -0.00000000000000
    4     0.00000000000000    -0.00000000000000    -1.29997431557550    -0.00000000000000
    5    -0.00000000000000    -0.00000000000000    -0.00000000000000    -1.29997431557602
    6    -2.96811316034756     0.00000000000000    -0.00000000000000     0.00000000000000
    7     0.00000000000000    -0.21696641577629    -0.00000000000000    -0.00000000000000
    8    -0.00000000000000    -0.00000000000000    -0.21696641577724    -0.00000000000000
    9     0.00000000000000    -0.00000000000000    -0.00000000000000    -0.21696641577643



DIIS coefficients:  0.397  0.603 
  After DIIS:
  ## F (Symmetry 0) ##
  Irrep: 1 Size: 9 x 9

                 1                   2                   3                   4                   5

    1   -32.40441976843266    -8.60745615904674    -0.00000000000000     0.00000000000001     0.00000000000000
    2    -8.60745615904674    -3.54366357960443    -0.00000000000000     0.00000000000000     0.00000000000000
    3    -0.00000000000000    -0.00000000000000    -0.27795953798706     0.00000000000000    -0.00000000000000
    4     0.00000000000001     0.00000000000000     0.00000000000000    -0.27795953799150    -0.00000000000000
    5     0.00000000000000     0.00000000000000    -0.00000000000000    -0.00000000000000    -0.27795953799239
    6    -5.90168611486866    -3.29635486403017    -0.00000000000000     0.00000000000000    -0.00000000000000
    7    -0.00000000000000     0.00000000000000    -0.91703532437505    -0.00000000000000    -0.00000000000000
    8     0.00000000000000     0.00000000000000     0.00000000000000    -0.91703532437396    -0.00000000000000
    9    -0.00000000000000    -0.00000000000000    -0.00000000000000    -0.00000000000000    -0.91703532437439

                 6                   7                   8                   9

    1    -5.90168611486866    -0.00000000000000     0.00000000000000    -0.00000000000000
    2    -3.29635486403017     0.00000000000000     0.00000000000000    -0.00000000000000
    3    -0.00000000000000    -0.91703532437505     0.00000000000000    -0.00000000000000
    4     0.00000000000000    -0.00000000000000    -0.91703532437396    -0.00000000000000
    5    -0.00000000000000    -0.00000000000000    -0.00000000000000    -0.91703532437439
    6    -2.35842812674062     0.00000000000000    -0.00000000000000     0.00000000000000
    7     0.00000000000000     0.16276224925105    -0.00000000000000    -0.00000000000000
    8    -0.00000000000000    -0.00000000000000     0.16276224924988    -0.00000000000000
    9     0.00000000000000    -0.00000000000000    -0.00000000000000     0.16276224925090



  ## F (Symmetry 0) ##
  Irrep: 1 Size: 9 x 9

                 1                   2                   3                   4                   5

    1   -32.40441976843266    -8.60745615904674    -0.00000000000000     0.00000000000001     0.00000000000000
    2    -8.60745615904674    -3.54366357960443    -0.00000000000000     0.00000000000000     0.00000000000000
    3    -0.00000000000000    -0.00000000000000    -0.27795953798706     0.00000000000000    -0.00000000000000
    4     0.00000000000001     0.00000000000000     0.00000000000000    -0.27795953799150    -0.00000000000000
    5     0.00000000000000     0.00000000000000    -0.00000000000000    -0.00000000000000    -0.27795953799239
    6    -5.90168611486866    -3.29635486403017    -0.00000000000000     0.00000000000000    -0.00000000000000
    7    -0.00000000000000     0.00000000000000    -0.91703532437505    -0.00000000000000    -0.00000000000000
    8     0.00000000000000     0.00000000000000     0.00000000000000    -0.91703532437396    -0.00000000000000
    9    -0.00000000000000    -0.00000000000000    -0.00000000000000    -0.00000000000000    -0.91703532437439

                 6                   7                   8                   9

    1    -5.90168611486866    -0.00000000000000     0.00000000000000    -0.00000000000000
    2    -3.29635486403017     0.00000000000000     0.00000000000000    -0.00000000000000
    3    -0.00000000000000    -0.91703532437505     0.00000000000000    -0.00000000000000
    4     0.00000000000000    -0.00000000000000    -0.91703532437396    -0.00000000000000
    5    -0.00000000000000    -0.00000000000000    -0.00000000000000    -0.91703532437439
    6    -2.35842812674062     0.00000000000000    -0.00000000000000     0.00000000000000
    7     0.00000000000000     0.16276224925105    -0.00000000000000    -0.00000000000000
    8    -0.00000000000000    -0.00000000000000     0.16276224924988    -0.00000000000000
    9     0.00000000000000    -0.00000000000000    -0.00000000000000     0.16276224925090



    Occupation by irrep:
              A 
    DOCC [     5 ]

  ## C (Symmetry 0) ##
  Irrep: 1 Size: 9 x 9

                 1                   2                   3                   4                   5

    1    -0.99518558934437     0.24665482771790     0.00000000000000     0.00000000000000    -0.00000000000000
    2    -0.02185152312242    -0.55689978026262    -0.00000000000000     0.00000000000000     0.00000000000000
    3     0.00000000000000    -0.00000000000000     0.00021441794710    -0.00042963540848    -0.68075172059494
    4     0.00000000000000     0.00000000000000     0.00122833485856     0.68075064641593    -0.00042924783907
    5     0.00000000000000    -0.00000000000000     0.68075074797965    -0.00122819935185     0.00021519278081
    6     0.00459147956014    -0.53733954632276     0.00000000000000     0.00000000000000     0.00000000000000
    7     0.00000000000000    -0.00000000000000     0.00014807886245    -0.00029670987627    -0.47013294250022
    8    -0.00000000000000     0.00000000000000     0.00084829852641     0.47013220066125    -0.00029644221753
    9    -0.00000000000000     0.00000000000000     0.47013227080136    -0.00084820494432     0.00014861396921

                 6                   7                   8                   9

    1     0.00000000000000    -0.00000000000000     0.00000000000000    -0.12514407693010
    2    -0.00000000000003     0.00000000000004    -0.00000000000004     1.46014234524356
    3    -0.00003162669036    -0.00002760034490    -0.92608595778566    -0.00000000000003
    4    -0.92608490373746     0.00139751223993     0.00003158500400    -0.00000000000002
    5    -0.00139751129716    -0.92608490386452     0.00002764803979     0.00000000000003
    6     0.00000000000003    -0.00000000000004     0.00000000000004    -1.43950813262460
    7     0.00003581833157     0.00003125835469     1.04882469592224     0.00000000000003
    8     1.04882350217713    -0.00158273142765    -0.00003577112031     0.00000000000002
    9     0.00158273035993     1.04882350232152    -0.00003131237082    -0.00000000000003



  ## C (Symmetry 0) ##
  Irrep: 1 Size: 9 x 9

                 1                   2                   3                   4                   5

    1    -0.99518558934437     0.24665482771790     0.00000000000000     0.00000000000000    -0.00000000000000
    2    -0.02185152312242    -0.55689978026262    -0.00000000000000     0.00000000000000     0.00000000000000
    3     0.00000000000000    -0.00000000000000     0.00021441794710    -0.00042963540848    -0.68075172059494
    4     0.00000000000000     0.00000000000000     0.00122833485856     0.68075064641593    -0.00042924783907
    5     0.00000000000000    -0.00000000000000     0.68075074797965    -0.00122819935185     0.00021519278081
    6     0.00459147956014    -0.53733954632276     0.00000000000000     0.00000000000000     0.00000000000000
    7     0.00000000000000    -0.00000000000000     0.00014807886245    -0.00029670987627    -0.47013294250022
    8    -0.00000000000000     0.00000000000000     0.00084829852641     0.47013220066125    -0.00029644221753
    9    -0.00000000000000     0.00000000000000     0.47013227080136    -0.00084820494432     0.00014861396921

                 6                   7                   8                   9

    1     0.00000000000000    -0.00000000000000     0.00000000000000    -0.12514407693010
    2    -0.00000000000003     0.00000000000004    -0.00000000000004     1.46014234524356
    3    -0.00003162669036    -0.00002760034490    -0.92608595778566    -0.00000000000003
    4    -0.92608490373746     0.00139751223993     0.00003158500400    -0.00000000000002
    5    -0.00139751129716    -0.92608490386452     0.00002764803979     0.00000000000003
    6     0.00000000000003    -0.00000000000004     0.00000000000004    -1.43950813262460
    7     0.00003581833157     0.00003125835469     1.04882469592224     0.00000000000003
    8     1.04882350217713    -0.00158273142765    -0.00003577112031     0.00000000000002
    9     0.00158273035993     1.04882350232152    -0.00003131237082    -0.00000000000003



  ## SCF density (Symmetry 0) ##
  Irrep: 1 Size: 9 x 9

                 1                   2                   3                   4                   5

    1     1.05123296127526    -0.11561569844015    -0.00000000000000    -0.00000000000000    -0.00000000000000
    2    -0.11561569844015     0.31061485431933     0.00000000000000     0.00000000000000     0.00000000000000
    3    -0.00000000000000     0.00000000000000     0.46342313565461    -0.00000000000000     0.00000000000000
    4    -0.00000000000000     0.00000000000000    -0.00000000000000     0.46342313565594    -0.00000000000000
    5    -0.00000000000000     0.00000000000000     0.00000000000000    -0.00000000000000     0.46342313565643
    6    -0.13710676751628     0.29914394445179    -0.00000000000000     0.00000000000000     0.00000000000000
    7     0.00000000000000     0.00000000000000     0.32004396874322     0.00000000000000     0.00000000000000
    8     0.00000000000000     0.00000000000000    -0.00000000000000     0.32004396874292     0.00000000000000
    9     0.00000000000000    -0.00000000000000    -0.00000000000000    -0.00000000000000     0.32004396874281

                 6                   7                   8                   9

    1    -0.13710676751628     0.00000000000000     0.00000000000000     0.00000000000000
    2     0.29914394445179     0.00000000000000     0.00000000000000    -0.00000000000000
    3    -0.00000000000000     0.32004396874322    -0.00000000000000    -0.00000000000000
    4     0.00000000000000     0.00000000000000     0.32004396874292    -0.00000000000000
    5     0.00000000000000     0.00000000000000     0.00000000000000     0.32004396874281
    6     0.28875486972690    -0.00000000000000    -0.00000000000000    -0.00000000000000
    7    -0.00000000000000     0.22102509358801    -0.00000000000000    -0.00000000000000
    8    -0.00000000000000    -0.00000000000000     0.22102509358697     0.00000000000000
    9    -0.00000000000000    -0.00000000000000     0.00000000000000     0.22102509358659



  ## SCF density (Symmetry 0) ##
  Irrep: 1 Size: 9 x 9

                 1                   2                   3                   4                   5

    1     1.05123296127526    -0.11561569844015    -0.00000000000000    -0.00000000000000    -0.00000000000000
    2    -0.11561569844015     0.31061485431933     0.00000000000000     0.00000000000000     0.00000000000000
    3    -0.00000000000000     0.00000000000000     0.46342313565461    -0.00000000000000     0.00000000000000
    4    -0.00000000000000     0.00000000000000    -0.00000000000000     0.46342313565594    -0.00000000000000
    5    -0.00000000000000     0.00000000000000     0.00000000000000    -0.00000000000000     0.46342313565643
    6    -0.13710676751628     0.29914394445179    -0.00000000000000     0.00000000000000     0.00000000000000
    7     0.00000000000000     0.00000000000000     0.32004396874322     0.00000000000000     0.00000000000000
    8     0.00000000000000     0.00000000000000    -0.00000000000000     0.32004396874292     0.00000000000000
    9     0.00000000000000    -0.00000000000000    -0.00000000000000    -0.00000000000000     0.32004396874281

                 6                   7                   8                   9

    1    -0.13710676751628     0.00000000000000     0.00000000000000     0.00000000000000
    2     0.29914394445179     0.00000000000000     0.00000000000000    -0.00000000000000
    3    -0.00000000000000     0.32004396874322    -0.00000000000000    -0.00000000000000
    4     0.00000000000000     0.00000000000000     0.32004396874292    -0.00000000000000
    5     0.00000000000000     0.00000000000000     0.00000000000000     0.32004396874281
    6     0.28875486972690    -0.00000000000000    -0.00000000000000    -0.00000000000000
    7    -0.00000000000000     0.22102509358801    -0.00000000000000    -0.00000000000000
    8    -0.00000000000000    -0.00000000000000     0.22102509358697     0.00000000000000
    9    -0.00000000000000    -0.00000000000000     0.00000000000000     0.22102509358659



   @DF-RHF iter   2:  -127.35844451499064   -4.70322e+00   2.37927e-01 DIIS
  ## F (Symmetry 0) ##
  Irrep: 1 Size: 9 x 9

                 1                   2                   3                   4                   5

    1   -32.81300524882213    -8.67490742080522    -0.00000000000000     0.00000000000001     0.00000000000000
    2    -8.67490742080522    -3.65528438077900    -0.00000000000001     0.00000000000000     0.00000000000000
    3    -0.00000000000000    -0.00000000000001    -0.44122058651098     0.00000000000000    -0.00000000000000
    4     0.00000000000001     0.00000000000000     0.00000000000000    -0.44122058651627    -0.00000000000000
    5     0.00000000000000     0.00000000000000    -0.00000000000000    -0.00000000000000    -0.44122058651717
    6    -5.95764956053673    -3.42491658820541    -0.00000000000000     0.00000000000000    -0.00000000000000
    7     0.00000000000000     0.00000000000000    -1.03984208904313    -0.00000000000000    -0.00000000000000
    8     0.00000000000000     0.00000000000000     0.00000000000000    -1.03984208904207    -0.00000000000000
    9    -0.00000000000000    -0.00000000000000    -0.00000000000000    -0.00000000000000    -1.03984208904244

                 6                   7                   8                   9

    1    -5.95764956053673     0.00000000000000     0.00000000000000    -0.00000000000000
    2    -3.42491658820541     0.00000000000000     0.00000000000000    -0.00000000000000
    3    -0.00000000000000    -1.03984208904313     0.00000000000000    -0.00000000000000
    4     0.00000000000000    -0.00000000000000    -1.03984208904207    -0.00000000000000
    5    -0.00000000000000    -0.00000000000000    -0.00000000000000    -1.03984208904244
    6    -2.49102520945530     0.00000000000000    -0.00000000000000     0.00000000000000
    7     0.00000000000000     0.09058193646547    -0.00000000000000    -0.00000000000000
    8    -0.00000000000000    -0.00000000000000     0.09058193646467    -0.00000000000000
    9     0.00000000000000    -0.00000000000000    -0.00000000000000     0.09058193646570



  ## F (Symmetry 0) ##
  Irrep: 1 Size: 9 x 9

                 1                   2                   3                   4                   5

    1   -32.81300524882213    -8.67490742080522    -0.00000000000000     0.00000000000001     0.00000000000000
    2    -8.67490742080522    -3.65528438077900    -0.00000000000001     0.00000000000000     0.00000000000000
    3    -0.00000000000000    -0.00000000000001    -0.44122058651098     0.00000000000000    -0.00000000000000
    4     0.00000000000001     0.00000000000000     0.00000000000000    -0.44122058651627    -0.00000000000000
    5     0.00000000000000     0.00000000000000    -0.00000000000000    -0.00000000000000    -0.44122058651717
    6    -5.95764956053673    -3.42491658820541    -0.00000000000000     0.00000000000000    -0.00000000000000
    7     0.00000000000000     0.00000000000000    -1.03984208904313    -0.00000000000000    -0.00000000000000
    8     0.00000000000000     0.00000000000000     0.00000000000000    -1.03984208904207    -0.00000000000000
    9    -0.00000000000000    -0.00000000000000    -0.00000000000000    -0.00000000000000    -1.03984208904244

                 6                   7                   8                   9

    1    -5.95764956053673     0.00000000000000     0.00000000000000    -0.00000000000000
    2    -3.42491658820541     0.00000000000000     0.00000000000000    -0.00000000000000
    3    -0.00000000000000    -1.03984208904313     0.00000000000000    -0.00000000000000
    4     0.00000000000000    -0.00000000000000    -1.03984208904207    -0.00000000000000
    5    -0.00000000000000    -0.00000000000000    -0.00000000000000    -1.03984208904244
    6    -2.49102520945530     0.00000000000000    -0.00000000000000     0.00000000000000
    7     0.00000000000000     0.09058193646547    -0.00000000000000    -0.00000000000000
    8    -0.00000000000000    -0.00000000000000     0.09058193646467    -0.00000000000000
    9     0.00000000000000    -0.00000000000000    -0.00000000000000     0.09058193646570



DIIS coefficients:  -0.088  -0.172  1.260 
  After DIIS:
  ## F (Symmetry 0) ##
  Irrep: 1 Size: 9 x 9

                 1                   2                   3                   4                   5

    1   -32.83451507875448    -8.67661578697987    -0.00000000000000     0.00000000000001     0.00000000000000
    2    -8.67661578697987    -3.65033332200266    -0.00000000000001     0.00000000000000     0.00000000000000
    3    -0.00000000000000    -0.00000000000001    -0.44861879971573     0.00000000000000    -0.00000000000000
    4     0.00000000000001     0.00000000000000     0.00000000000000    -0.44861879972124    -0.00000000000000
    5     0.00000000000000     0.00000000000000    -0.00000000000000    -0.00000000000000    -0.44861879972213
    6    -5.96040797330362    -3.43331653253340    -0.00000000000000     0.00000000000000    -0.00000000000000
    7     0.00000000000000     0.00000000000000    -1.05684229704786    -0.00000000000000    -0.00000000000000
    8    -0.00000000000000     0.00000000000000     0.00000000000000    -1.05684229704679    -0.00000000000000
    9    -0.00000000000000    -0.00000000000000    -0.00000000000000    -0.00000000000000    -1.05684229704714

                 6                   7                   8                   9

    1    -5.96040797330362     0.00000000000000    -0.00000000000000    -0.00000000000000
    2    -3.43331653253340     0.00000000000000     0.00000000000000    -0.00000000000000
    3    -0.00000000000000    -1.05684229704786     0.00000000000000    -0.00000000000000
    4     0.00000000000000    -0.00000000000000    -1.05684229704679    -0.00000000000000
    5    -0.00000000000000    -0.00000000000000    -0.00000000000000    -1.05684229704714
    6    -2.50172591165849     0.00000000000000    -0.00000000000000     0.00000000000000
    7     0.00000000000000     0.08662330370282    -0.00000000000000    -0.00000000000000
    8    -0.00000000000000    -0.00000000000000     0.08662330370212    -0.00000000000000
    9     0.00000000000000    -0.00000000000000    -0.00000000000000     0.08662330370315



  ## F (Symmetry 0) ##
  Irrep: 1 Size: 9 x 9

                 1                   2                   3                   4                   5

    1   -32.83451507875448    -8.67661578697987    -0.00000000000000     0.00000000000001     0.00000000000000
    2    -8.67661578697987    -3.65033332200266    -0.00000000000001     0.00000000000000     0.00000000000000
    3    -0.00000000000000    -0.00000000000001    -0.44861879971573     0.00000000000000    -0.00000000000000
    4     0.00000000000001     0.00000000000000     0.00000000000000    -0.44861879972124    -0.00000000000000
    5     0.00000000000000     0.00000000000000    -0.00000000000000    -0.00000000000000    -0.44861879972213
    6    -5.96040797330362    -3.43331653253340    -0.00000000000000     0.00000000000000    -0.00000000000000
    7     0.00000000000000     0.00000000000000    -1.05684229704786    -0.00000000000000    -0.00000000000000
    8    -0.00000000000000     0.00000000000000     0.00000000000000    -1.05684229704679    -0.00000000000000
    9    -0.00000000000000    -0.00000000000000    -0.00000000000000    -0.00000000000000    -1.05684229704714

                 6                   7                   8                   9

    1    -5.96040797330362     0.00000000000000    -0.00000000000000    -0.00000000000000
    2    -3.43331653253340     0.00000000000000     0.00000000000000    -0.00000000000000
    3    -0.00000000000000    -1.05684229704786     0.00000000000000    -0.00000000000000
    4     0.00000000000000    -0.00000000000000    -1.05684229704679    -0.00000000000000
    5    -0.00000000000000    -0.00000000000000    -0.00000000000000    -1.05684229704714
    6    -2.50172591165849     0.00000000000000    -0.00000000000000     0.00000000000000
    7     0.00000000000000     0.08662330370282    -0.00000000000000    -0.00000000000000
    8    -0.00000000000000    -0.00000000000000     0.08662330370212    -0.00000000000000
    9     0.00000000000000    -0.00000000000000    -0.00000000000000     0.08662330370315



    Occupation by irrep:
              A 
    DOCC [     5 ]

  ## C (Symmetry 0) ##
  Irrep: 1 Size: 9 x 9

                 1                   2                   3                   4                   5

    1    -0.99559241601967     0.24473280038963     0.00000000000000     0.00000000000000     0.00000000000000
    2    -0.01963849802416    -0.54721143926406    -0.00000000000000    -0.00000000000000    -0.00000000000000
    3    -0.00000000000000    -0.00000000000000     0.00018420954213    -0.00005671723002    -0.69165642300412
    4     0.00000000000000    -0.00000000000000     0.00128690002815     0.69165525035583    -0.00005637439249
    5     0.00000000000000    -0.00000000000000     0.69165522812320    -0.00128688496393     0.00018431475107
    6     0.00360223613898    -0.54688484263351     0.00000000000000    -0.00000000000000     0.00000000000000
    7     0.00000000000000     0.00000000000000     0.00012189875070    -0.00003753203771    -0.45769645212482
    8    -0.00000000000000     0.00000000000000     0.00085159272368     0.45769567613479    -0.00003730516855
    9    -0.00000000000000     0.00000000000000     0.45769566142198    -0.00085158275510     0.00012196837163

                 6                   7                   8                   9

    1     0.00000000000000    -0.00000000000000     0.00000000000000    -0.12568054281991
    2    -0.00000000000001     0.00000000000004    -0.00000000000002     1.46383212590332
    3    -0.00019013615064    -0.00002359226561    -0.91797040109320    -0.00000000000001
    4    -0.91796906390295     0.00156702606770     0.00019009560037    -0.00000000000001
    5    -0.00156702114802    -0.91796908328229     0.00002391680361     0.00000000000003
    6     0.00000000000001    -0.00000000000004     0.00000000000002    -1.43591174046729
    7     0.00021837597834     0.00002709628898     1.05431125937578     0.00000000000001
    8     1.05430972358201    -0.00179976742708    -0.00021832940538     0.00000000000001
    9     0.00179976177671     1.05430974584011    -0.00002746902874    -0.00000000000003



  ## C (Symmetry 0) ##
  Irrep: 1 Size: 9 x 9

                 1                   2                   3                   4                   5

    1    -0.99559241601967     0.24473280038963     0.00000000000000     0.00000000000000     0.00000000000000
    2    -0.01963849802416    -0.54721143926406    -0.00000000000000    -0.00000000000000    -0.00000000000000
    3    -0.00000000000000    -0.00000000000000     0.00018420954213    -0.00005671723002    -0.69165642300412
    4     0.00000000000000    -0.00000000000000     0.00128690002815     0.69165525035583    -0.00005637439249
    5     0.00000000000000    -0.00000000000000     0.69165522812320    -0.00128688496393     0.00018431475107
    6     0.00360223613898    -0.54688484263351     0.00000000000000    -0.00000000000000     0.00000000000000
    7     0.00000000000000     0.00000000000000     0.00012189875070    -0.00003753203771    -0.45769645212482
    8    -0.00000000000000     0.00000000000000     0.00085159272368     0.45769567613479    -0.00003730516855
    9    -0.00000000000000     0.00000000000000     0.45769566142198    -0.00085158275510     0.00012196837163

                 6                   7                   8                   9

    1     0.00000000000000    -0.00000000000000     0.00000000000000    -0.12568054281991
    2    -0.00000000000001     0.00000000000004    -0.00000000000002     1.46383212590332
    3    -0.00019013615064    -0.00002359226561    -0.91797040109320    -0.00000000000001
    4    -0.91796906390295     0.00156702606770     0.00019009560037    -0.00000000000001
    5    -0.00156702114802    -0.91796908328229     0.00002391680361     0.00000000000003
    6     0.00000000000001    -0.00000000000004     0.00000000000002    -1.43591174046729
    7     0.00021837597834     0.00002709628898     1.05431125937578     0.00000000000001
    8     1.05430972358201    -0.00179976742708    -0.00021832940538     0.00000000000001
    9     0.00179976177671     1.05430974584011    -0.00002746902874    -0.00000000000003



  ## SCF density (Symmetry 0) ##
  Irrep: 1 Size: 9 x 9

                 1                   2                   3                   4                   5

    1     1.05109840242244    -0.11436864824146    -0.00000000000000    -0.00000000000000    -0.00000000000000
    2    -0.11436864824146     0.29982602986608     0.00000000000000     0.00000000000000    -0.00000000000000
    3    -0.00000000000000     0.00000000000000     0.47838864463285    -0.00000000000000     0.00000000000000
    4    -0.00000000000000     0.00000000000000    -0.00000000000000     0.47838864463454    -0.00000000000000
    5    -0.00000000000000    -0.00000000000000     0.00000000000000    -0.00000000000000     0.47838864463500
    6    -0.13742701800902     0.29919089934188    -0.00000000000000     0.00000000000000     0.00000000000000
    7     0.00000000000000     0.00000000000000     0.31656871548195     0.00000000000000     0.00000000000000
    8     0.00000000000000    -0.00000000000000     0.00000000000000     0.31656871548154     0.00000000000000
    9     0.00000000000000    -0.00000000000000    -0.00000000000000    -0.00000000000000     0.31656871548143

                 6                   7                   8                   9

    1    -0.13742701800902     0.00000000000000     0.00000000000000     0.00000000000000
    2     0.29919089934188     0.00000000000000    -0.00000000000000    -0.00000000000000
    3    -0.00000000000000     0.31656871548195     0.00000000000000    -0.00000000000000
    4     0.00000000000000     0.00000000000000     0.31656871548154    -0.00000000000000
    5     0.00000000000000     0.00000000000000     0.00000000000000     0.31656871548143
    6     0.29909600720748    -0.00000000000000    -0.00000000000000     0.00000000000000
    7    -0.00000000000000     0.20948605855560     0.00000000000000    -0.00000000000000
    8    -0.00000000000000     0.00000000000000     0.20948605855433     0.00000000000000
    9     0.00000000000000    -0.00000000000000     0.00000000000000     0.20948605855398



  ## SCF density (Symmetry 0) ##
  Irrep: 1 Size: 9 x 9

                 1                   2                   3                   4                   5

    1     1.05109840242244    -0.11436864824146    -0.00000000000000    -0.00000000000000    -0.00000000000000
    2    -0.11436864824146     0.29982602986608     0.00000000000000     0.00000000000000    -0.00000000000000
    3    -0.00000000000000     0.00000000000000     0.47838864463285    -0.00000000000000     0.00000000000000
    4    -0.00000000000000     0.00000000000000    -0.00000000000000     0.47838864463454    -0.00000000000000
    5    -0.00000000000000    -0.00000000000000     0.00000000000000    -0.00000000000000     0.47838864463500
    6    -0.13742701800902     0.29919089934188    -0.00000000000000     0.00000000000000     0.00000000000000
    7     0.00000000000000     0.00000000000000     0.31656871548195     0.00000000000000     0.00000000000000
    8     0.00000000000000    -0.00000000000000     0.00000000000000     0.31656871548154     0.00000000000000
    9     0.00000000000000    -0.00000000000000    -0.00000000000000    -0.00000000000000     0.31656871548143

                 6                   7                   8                   9

    1    -0.13742701800902     0.00000000000000     0.00000000000000     0.00000000000000
    2     0.29919089934188     0.00000000000000    -0.00000000000000    -0.00000000000000
    3    -0.00000000000000     0.31656871548195     0.00000000000000    -0.00000000000000
    4     0.00000000000000     0.00000000000000     0.31656871548154    -0.00000000000000
    5     0.00000000000000     0.00000000000000     0.00000000000000     0.31656871548143
    6     0.29909600720748    -0.00000000000000    -0.00000000000000     0.00000000000000
    7    -0.00000000000000     0.20948605855560     0.00000000000000    -0.00000000000000
    8    -0.00000000000000     0.00000000000000     0.20948605855433     0.00000000000000
    9     0.00000000000000    -0.00000000000000     0.00000000000000     0.20948605855398



   @DF-RHF iter   3:  -128.47153565443344   -1.11309e+00   1.06893e-02 DIIS
  ## F (Symmetry 0) ##
  Irrep: 1 Size: 9 x 9

                 1                   2                   3                   4                   5

    1   -32.73597154409165    -8.66103364169140    -0.00000000000000     0.00000000000001     0.00000000000000
    2    -8.66103364169140    -3.61494121277278    -0.00000000000001     0.00000000000000     0.00000000000000
    3    -0.00000000000000    -0.00000000000001    -0.41170606660629     0.00000000000000    -0.00000000000000
    4     0.00000000000001     0.00000000000000     0.00000000000000    -0.41170606661185    -0.00000000000000
    5     0.00000000000000     0.00000000000000    -0.00000000000000    -0.00000000000000    -0.41170606661272
    6    -5.94757231965194    -3.40028993260151    -0.00000000000000     0.00000000000000    -0.00000000000000
    7     0.00000000000000     0.00000000000000    -1.02806130632225    -0.00000000000000    -0.00000000000000
    8     0.00000000000000     0.00000000000000    -0.00000000000000    -1.02806130632117    -0.00000000000000
    9    -0.00000000000000    -0.00000000000000    -0.00000000000000    -0.00000000000000    -1.02806130632154

                 6                   7                   8                   9

    1    -5.94757231965194     0.00000000000000     0.00000000000000    -0.00000000000000
    2    -3.40028993260151     0.00000000000000     0.00000000000000    -0.00000000000000
    3    -0.00000000000000    -1.02806130632225    -0.00000000000000    -0.00000000000000
    4     0.00000000000000    -0.00000000000000    -1.02806130632117    -0.00000000000000
    5    -0.00000000000000    -0.00000000000000    -0.00000000000000    -1.02806130632154
    6    -2.47243180738417     0.00000000000000    -0.00000000000000     0.00000000000000
    7     0.00000000000000     0.10457191046014    -0.00000000000000    -0.00000000000000
    8    -0.00000000000000    -0.00000000000000     0.10457191045946    -0.00000000000000
    9     0.00000000000000    -0.00000000000000    -0.00000000000000     0.10457191046048



  ## F (Symmetry 0) ##
  Irrep: 1 Size: 9 x 9

                 1                   2                   3                   4                   5

    1   -32.73597154409165    -8.66103364169140    -0.00000000000000     0.00000000000001     0.00000000000000
    2    -8.66103364169140    -3.61494121277278    -0.00000000000001     0.00000000000000     0.00000000000000
    3    -0.00000000000000    -0.00000000000001    -0.41170606660629     0.00000000000000    -0.00000000000000
    4     0.00000000000001     0.00000000000000     0.00000000000000    -0.41170606661185    -0.00000000000000
    5     0.00000000000000     0.00000000000000    -0.00000000000000    -0.00000000000000    -0.41170606661272
    6    -5.94757231965194    -3.40028993260151    -0.00000000000000     0.00000000000000    -0.00000000000000
    7     0.00000000000000     0.00000000000000    -1.02806130632225    -0.00000000000000    -0.00000000000000
    8     0.00000000000000     0.00000000000000    -0.00000000000000    -1.02806130632117    -0.00000000000000
    9    -0.00000000000000    -0.00000000000000    -0.00000000000000    -0.00000000000000    -1.02806130632154

                 6                   7                   8                   9

    1    -5.94757231965194     0.00000000000000     0.00000000000000    -0.00000000000000
    2    -3.40028993260151     0.00000000000000     0.00000000000000    -0.00000000000000
    3    -0.00000000000000    -1.02806130632225    -0.00000000000000    -0.00000000000000
    4     0.00000000000000    -0.00000000000000    -1.02806130632117    -0.00000000000000
    5    -0.00000000000000    -0.00000000000000    -0.00000000000000    -1.02806130632154
    6    -2.47243180738417     0.00000000000000    -0.00000000000000     0.00000000000000
    7     0.00000000000000     0.10457191046014    -0.00000000000000    -0.00000000000000
    8    -0.00000000000000    -0.00000000000000     0.10457191045946    -0.00000000000000
    9     0.00000000000000    -0.00000000000000    -0.00000000000000     0.10457191046048



DIIS coefficients:  -0.015  -0.023  0.224  0.814 
  After DIIS:
  ## F (Symmetry 0) ##
  Irrep: 1 Size: 9 x 9

                 1                   2                   3                   4                   5

    1   -32.76592758998009    -8.66619679269108    -0.00000000000000     0.00000000000001     0.00000000000000
    2    -8.66619679269108    -3.62673565380626    -0.00000000000001     0.00000000000000     0.00000000000000
    3    -0.00000000000000    -0.00000000000001    -0.42344116527877     0.00000000000000    -0.00000000000000
    4     0.00000000000001     0.00000000000000     0.00000000000000    -0.42344116528430    -0.00000000000000
    5     0.00000000000000     0.00000000000000    -0.00000000000000    -0.00000000000000    -0.42344116528518
    6    -5.95158722955272    -3.40978597318063    -0.00000000000000     0.00000000000000    -0.00000000000000
    7     0.00000000000000     0.00000000000000    -1.03493213711023    -0.00000000000000    -0.00000000000000
    8     0.00000000000000     0.00000000000000    -0.00000000000000    -1.03493213710916    -0.00000000000000
    9    -0.00000000000000    -0.00000000000000    -0.00000000000000    -0.00000000000000    -1.03493213710953

                 6                   7                   8                   9

    1    -5.95158722955272     0.00000000000000     0.00000000000000    -0.00000000000000
    2    -3.40978597318063     0.00000000000000     0.00000000000000    -0.00000000000000
    3    -0.00000000000000    -1.03493213711023    -0.00000000000000    -0.00000000000000
    4     0.00000000000000    -0.00000000000000    -1.03493213710916    -0.00000000000000
    5    -0.00000000000000    -0.00000000000000    -0.00000000000000    -1.03493213710953
    6    -2.48095460010019     0.00000000000000    -0.00000000000000     0.00000000000000
    7     0.00000000000000     0.09920901762309    -0.00000000000000    -0.00000000000000
    8    -0.00000000000000    -0.00000000000000     0.09920901762240    -0.00000000000000
    9     0.00000000000000    -0.00000000000000    -0.00000000000000     0.09920901762342



  ## F (Symmetry 0) ##
  Irrep: 1 Size: 9 x 9

                 1                   2                   3                   4                   5

    1   -32.76592758998009    -8.66619679269108    -0.00000000000000     0.00000000000001     0.00000000000000
    2    -8.66619679269108    -3.62673565380626    -0.00000000000001     0.00000000000000     0.00000000000000
    3    -0.00000000000000    -0.00000000000001    -0.42344116527877     0.00000000000000    -0.00000000000000
    4     0.00000000000001     0.00000000000000     0.00000000000000    -0.42344116528430    -0.00000000000000
    5     0.00000000000000     0.00000000000000    -0.00000000000000    -0.00000000000000    -0.42344116528518
    6    -5.95158722955272    -3.40978597318063    -0.00000000000000     0.00000000000000    -0.00000000000000
    7     0.00000000000000     0.00000000000000    -1.03493213711023    -0.00000000000000    -0.00000000000000
    8     0.00000000000000     0.00000000000000    -0.00000000000000    -1.03493213710916    -0.00000000000000
    9    -0.00000000000000    -0.00000000000000    -0.00000000000000    -0.00000000000000    -1.03493213710953

                 6                   7                   8                   9

    1    -5.95158722955272     0.00000000000000     0.00000000000000    -0.00000000000000
    2    -3.40978597318063     0.00000000000000     0.00000000000000    -0.00000000000000
    3    -0.00000000000000    -1.03493213711023    -0.00000000000000    -0.00000000000000
[...]
    6     0.00000000000000     0.00000000000000    -0.36916612455552     0.00000000000000     0.00000000000000
    7    -0.00833373425606    -0.25151149710399     0.00000000000000     0.00000000000000     0.00000000000000
    8     0.00000000000000     0.00000000000000     0.00000000000000     0.00000000000000     0.00000000000000
    9     0.00000000000000     0.00000000000000     0.00000000000000     0.00000000000000     0.00000000000000

                 6                   7                   8                   9

    1     0.00000000000000    -0.00833373425606     0.00000000000000     0.00000000000000
    2     0.00000000000000    -0.25151149710399     0.00000000000000     0.00000000000000
    3    -0.36916612455552     0.00000000000000     0.00000000000000     0.00000000000000
    4     0.00000000000000     0.00000000000000     0.00000000000000     0.00000000000000
    5     0.00000000000000     0.00000000000000     0.00000000000000     0.00000000000000
    6     0.00000000000000    -0.74884315397579     0.00000000000000     0.00000000000000
    7    -0.74884315397579     0.00000000000000     0.00000000000000     0.00000000000000
    8     0.00000000000000     0.00000000000000     0.00000000000000     0.00000000000000
    9     0.00000000000000     0.00000000000000     0.00000000000000     0.00000000000000



  ## SO Dipole y (Symmetry 0) ##
  Irrep: 1 Size: 9 x 9

                 1                   2                   3                   4                   5

    1     0.00000000000000     0.00000000000000     0.00000000000000    -0.06022851812684     0.00000000000000
    2     0.00000000000000     0.00000000000000     0.00000000000000    -0.38161677212704     0.00000000000000
    3     0.00000000000000     0.00000000000000     0.00000000000000     0.00000000000000     0.00000000000000
    4    -0.06022851812684    -0.38161677212704     0.00000000000000     0.00000000000000     0.00000000000000
    5     0.00000000000000     0.00000000000000     0.00000000000000     0.00000000000000     0.00000000000000
    6     0.00000000000000     0.00000000000000     0.00000000000000    -0.36916612455552     0.00000000000000
    7     0.00000000000000     0.00000000000000     0.00000000000000     0.00000000000000     0.00000000000000
    8    -0.00833373425606    -0.25151149710399     0.00000000000000     0.00000000000000     0.00000000000000
    9     0.00000000000000     0.00000000000000     0.00000000000000     0.00000000000000     0.00000000000000

                 6                   7                   8                   9

    1     0.00000000000000     0.00000000000000    -0.00833373425606     0.00000000000000
    2     0.00000000000000     0.00000000000000    -0.25151149710399     0.00000000000000
    3     0.00000000000000     0.00000000000000     0.00000000000000     0.00000000000000
    4    -0.36916612455552     0.00000000000000     0.00000000000000     0.00000000000000
    5     0.00000000000000     0.00000000000000     0.00000000000000     0.00000000000000
    6     0.00000000000000     0.00000000000000    -0.74884315397579     0.00000000000000
    7     0.00000000000000     0.00000000000000     0.00000000000000     0.00000000000000
    8    -0.74884315397579     0.00000000000000     0.00000000000000     0.00000000000000
    9     0.00000000000000     0.00000000000000     0.00000000000000     0.00000000000000



  ## SO Dipole z (Symmetry 0) ##
  Irrep: 1 Size: 9 x 9

                 1                   2                   3                   4                   5

    1     0.00000000000000     0.00000000000000     0.00000000000000     0.00000000000000    -0.06022851812684
    2     0.00000000000000     0.00000000000000     0.00000000000000     0.00000000000000    -0.38161677212704
    3     0.00000000000000     0.00000000000000     0.00000000000000     0.00000000000000     0.00000000000000
    4     0.00000000000000     0.00000000000000     0.00000000000000     0.00000000000000     0.00000000000000
    5    -0.06022851812684    -0.38161677212704     0.00000000000000     0.00000000000000     0.00000000000000
    6     0.00000000000000     0.00000000000000     0.00000000000000     0.00000000000000    -0.36916612455552
    7     0.00000000000000     0.00000000000000     0.00000000000000     0.00000000000000     0.00000000000000
    8     0.00000000000000     0.00000000000000     0.00000000000000     0.00000000000000     0.00000000000000
    9    -0.00833373425606    -0.25151149710399     0.00000000000000     0.00000000000000     0.00000000000000

                 6                   7                   8                   9

    1     0.00000000000000     0.00000000000000     0.00000000000000    -0.00833373425606
    2     0.00000000000000     0.00000000000000     0.00000000000000    -0.25151149710399
    3     0.00000000000000     0.00000000000000     0.00000000000000     0.00000000000000
    4     0.00000000000000     0.00000000000000     0.00000000000000     0.00000000000000
    5    -0.36916612455552     0.00000000000000     0.00000000000000     0.00000000000000
    6     0.00000000000000     0.00000000000000     0.00000000000000    -0.74884315397579
    7     0.00000000000000     0.00000000000000     0.00000000000000     0.00000000000000
    8     0.00000000000000     0.00000000000000     0.00000000000000     0.00000000000000
    9    -0.74884315397579     0.00000000000000     0.00000000000000     0.00000000000000



  Nuclear Dipole Moment: (a.u.)
     X:     0.0000      Y:     0.0000      Z:     0.0000

  Electronic Dipole Moment: (a.u.)
     X:     0.0000      Y:    -0.0000      Z:    -0.0000

  Dipole Moment: (a.u.)
     X:     0.0000      Y:    -0.0000      Z:    -0.0000     Total:     0.0000

  Dipole Moment: (Debye)
     X:     0.0000      Y:    -0.0000      Z:    -0.0000     Total:     0.0000

  ## SO Quadrupole x2 (Symmetry 0) ##
  Irrep: 1 Size: 9 x 9

                 1                   2                   3                   4                   5

    1    -0.01079822023447    -0.01126025099176     0.00000000000000     0.00000000000000     0.00000000000000
    2    -0.01126025099176    -0.17151896484087     0.00000000000000     0.00000000000000     0.00000000000000
    3     0.00000000000000     0.00000000000000    -0.30629819905054     0.00000000000000     0.00000000000000
    4     0.00000000000000     0.00000000000000     0.00000000000000    -0.10209939968351     0.00000000000000
    5     0.00000000000000     0.00000000000000     0.00000000000000     0.00000000000000    -0.10209939968351
    6    -0.00624065984470    -0.18834266275253     0.00000000000000     0.00000000000000     0.00000000000000
    7     0.00000000000000     0.00000000000000    -0.31402238642400     0.00000000000000     0.00000000000000
    8     0.00000000000000     0.00000000000000     0.00000000000000    -0.10467412880800     0.00000000000000
    9     0.00000000000000     0.00000000000000     0.00000000000000     0.00000000000000    -0.10467412880800

                 6                   7                   8                   9

    1    -0.00624065984470     0.00000000000000     0.00000000000000     0.00000000000000
    2    -0.18834266275253     0.00000000000000     0.00000000000000     0.00000000000000
    3     0.00000000000000    -0.31402238642400     0.00000000000000     0.00000000000000
    4     0.00000000000000     0.00000000000000    -0.10467412880800     0.00000000000000
    5     0.00000000000000     0.00000000000000     0.00000000000000    -0.10467412880800
    6    -0.56076606925640     0.00000000000000     0.00000000000000     0.00000000000000
    7     0.00000000000000    -1.68229820776921     0.00000000000000     0.00000000000000
    8     0.00000000000000     0.00000000000000    -0.56076606925640     0.00000000000000
    9     0.00000000000000     0.00000000000000     0.00000000000000    -0.56076606925640



  ## SO Quadrupole xy (Symmetry 0) ##
  Irrep: 1 Size: 9 x 9

                 1                   2                   3                   4                   5

    1     0.00000000000000     0.00000000000000     0.00000000000000     0.00000000000000     0.00000000000000
    2     0.00000000000000     0.00000000000000     0.00000000000000     0.00000000000000     0.00000000000000
    3     0.00000000000000     0.00000000000000     0.00000000000000    -0.10209939968351     0.00000000000000
    4     0.00000000000000     0.00000000000000    -0.10209939968351     0.00000000000000     0.00000000000000
    5     0.00000000000000     0.00000000000000     0.00000000000000     0.00000000000000     0.00000000000000
    6     0.00000000000000     0.00000000000000     0.00000000000000     0.00000000000000     0.00000000000000
    7     0.00000000000000     0.00000000000000     0.00000000000000    -0.10467412880800     0.00000000000000
    8     0.00000000000000     0.00000000000000    -0.10467412880800     0.00000000000000     0.00000000000000
    9     0.00000000000000     0.00000000000000     0.00000000000000     0.00000000000000     0.00000000000000

                 6                   7                   8                   9

    1     0.00000000000000     0.00000000000000     0.00000000000000     0.00000000000000
    2     0.00000000000000     0.00000000000000     0.00000000000000     0.00000000000000
    3     0.00000000000000     0.00000000000000    -0.10467412880800     0.00000000000000
    4     0.00000000000000    -0.10467412880800     0.00000000000000     0.00000000000000
    5     0.00000000000000     0.00000000000000     0.00000000000000     0.00000000000000
    6     0.00000000000000     0.00000000000000     0.00000000000000     0.00000000000000
    7     0.00000000000000     0.00000000000000    -0.56076606925640     0.00000000000000
    8     0.00000000000000    -0.56076606925640     0.00000000000000     0.00000000000000
    9     0.00000000000000     0.00000000000000     0.00000000000000     0.00000000000000



  ## SO Quadrupole xz (Symmetry 0) ##
  Irrep: 1 Size: 9 x 9

                 1                   2                   3                   4                   5

    1     0.00000000000000     0.00000000000000     0.00000000000000     0.00000000000000     0.00000000000000
    2     0.00000000000000     0.00000000000000     0.00000000000000     0.00000000000000     0.00000000000000
    3     0.00000000000000     0.00000000000000     0.00000000000000     0.00000000000000    -0.10209939968351
    4     0.00000000000000     0.00000000000000     0.00000000000000     0.00000000000000     0.00000000000000
    5     0.00000000000000     0.00000000000000    -0.10209939968351     0.00000000000000     0.00000000000000
    6     0.00000000000000     0.00000000000000     0.00000000000000     0.00000000000000     0.00000000000000
    7     0.00000000000000     0.00000000000000     0.00000000000000     0.00000000000000    -0.10467412880800
    8     0.00000000000000     0.00000000000000     0.00000000000000     0.00000000000000     0.00000000000000
    9     0.00000000000000     0.00000000000000    -0.10467412880800     0.00000000000000     0.00000000000000

                 6                   7                   8                   9

    1     0.00000000000000     0.00000000000000     0.00000000000000     0.00000000000000
    2     0.00000000000000     0.00000000000000     0.00000000000000     0.00000000000000
    3     0.00000000000000     0.00000000000000     0.00000000000000    -0.10467412880800
    4     0.00000000000000     0.00000000000000     0.00000000000000     0.00000000000000
    5     0.00000000000000    -0.10467412880800     0.00000000000000     0.00000000000000
    6     0.00000000000000     0.00000000000000     0.00000000000000     0.00000000000000
    7     0.00000000000000     0.00000000000000     0.00000000000000    -0.56076606925640
    8     0.00000000000000     0.00000000000000     0.00000000000000     0.00000000000000
    9     0.00000000000000    -0.56076606925640     0.00000000000000     0.00000000000000



  ## SO Quadrupole y2 (Symmetry 0) ##
  Irrep: 1 Size: 9 x 9

                 1                   2                   3                   4                   5

    1    -0.01079822023447    -0.01126025099176     0.00000000000000     0.00000000000000     0.00000000000000
    2    -0.01126025099176    -0.17151896484087     0.00000000000000     0.00000000000000     0.00000000000000
    3     0.00000000000000     0.00000000000000    -0.10209939968351     0.00000000000000     0.00000000000000
    4     0.00000000000000     0.00000000000000     0.00000000000000    -0.30629819905054     0.00000000000000
    5     0.00000000000000     0.00000000000000     0.00000000000000     0.00000000000000    -0.10209939968351
    6    -0.00624065984470    -0.18834266275253     0.00000000000000     0.00000000000000     0.00000000000000
    7     0.00000000000000     0.00000000000000    -0.10467412880800     0.00000000000000     0.00000000000000
    8     0.00000000000000     0.00000000000000     0.00000000000000    -0.31402238642400     0.00000000000000
    9     0.00000000000000     0.00000000000000     0.00000000000000     0.00000000000000    -0.10467412880800

                 6                   7                   8                   9

    1    -0.00624065984470     0.00000000000000     0.00000000000000     0.00000000000000
    2    -0.18834266275253     0.00000000000000     0.00000000000000     0.00000000000000
    3     0.00000000000000    -0.10467412880800     0.00000000000000     0.00000000000000
    4     0.00000000000000     0.00000000000000    -0.31402238642400     0.00000000000000
    5     0.00000000000000     0.00000000000000     0.00000000000000    -0.10467412880800
    6    -0.56076606925640     0.00000000000000     0.00000000000000     0.00000000000000
    7     0.00000000000000    -0.56076606925640     0.00000000000000     0.00000000000000
    8     0.00000000000000     0.00000000000000    -1.68229820776921     0.00000000000000
    9     0.00000000000000     0.00000000000000     0.00000000000000    -0.56076606925640



  ## SO Quadrupole yz (Symmetry 0) ##
  Irrep: 1 Size: 9 x 9

                 1                   2                   3                   4                   5

    1     0.00000000000000     0.00000000000000     0.00000000000000     0.00000000000000     0.00000000000000
    2     0.00000000000000     0.00000000000000     0.00000000000000     0.00000000000000     0.00000000000000
    3     0.00000000000000     0.00000000000000     0.00000000000000     0.00000000000000     0.00000000000000
    4     0.00000000000000     0.00000000000000     0.00000000000000     0.00000000000000    -0.10209939968351
    5     0.00000000000000     0.00000000000000     0.00000000000000    -0.10209939968351     0.00000000000000
    6     0.00000000000000     0.00000000000000     0.00000000000000     0.00000000000000     0.00000000000000
    7     0.00000000000000     0.00000000000000     0.00000000000000     0.00000000000000     0.00000000000000
    8     0.00000000000000     0.00000000000000     0.00000000000000     0.00000000000000    -0.10467412880800
    9     0.00000000000000     0.00000000000000     0.00000000000000    -0.10467412880800     0.00000000000000

                 6                   7                   8                   9

    1     0.00000000000000     0.00000000000000     0.00000000000000     0.00000000000000
    2     0.00000000000000     0.00000000000000     0.00000000000000     0.00000000000000
    3     0.00000000000000     0.00000000000000     0.00000000000000     0.00000000000000
    4     0.00000000000000     0.00000000000000     0.00000000000000    -0.10467412880800
    5     0.00000000000000     0.00000000000000    -0.10467412880800     0.00000000000000
    6     0.00000000000000     0.00000000000000     0.00000000000000     0.00000000000000
    7     0.00000000000000     0.00000000000000     0.00000000000000     0.00000000000000
    8     0.00000000000000     0.00000000000000     0.00000000000000    -0.56076606925640
    9     0.00000000000000     0.00000000000000    -0.56076606925640     0.00000000000000



  ## SO Quadrupole z2 (Symmetry 0) ##
  Irrep: 1 Size: 9 x 9

                 1                   2                   3                   4                   5

    1    -0.01079822023447    -0.01126025099176     0.00000000000000     0.00000000000000     0.00000000000000
    2    -0.01126025099176    -0.17151896484087     0.00000000000000     0.00000000000000     0.00000000000000
    3     0.00000000000000     0.00000000000000    -0.10209939968351     0.00000000000000     0.00000000000000
    4     0.00000000000000     0.00000000000000     0.00000000000000    -0.10209939968351     0.00000000000000
    5     0.00000000000000     0.00000000000000     0.00000000000000     0.00000000000000    -0.30629819905054
    6    -0.00624065984470    -0.18834266275253     0.00000000000000     0.00000000000000     0.00000000000000
    7     0.00000000000000     0.00000000000000    -0.10467412880800     0.00000000000000     0.00000000000000
    8     0.00000000000000     0.00000000000000     0.00000000000000    -0.10467412880800     0.00000000000000
    9     0.00000000000000     0.00000000000000     0.00000000000000     0.00000000000000    -0.31402238642400

                 6                   7                   8                   9

    1    -0.00624065984470     0.00000000000000     0.00000000000000     0.00000000000000
    2    -0.18834266275253     0.00000000000000     0.00000000000000     0.00000000000000
    3     0.00000000000000    -0.10467412880800     0.00000000000000     0.00000000000000
    4     0.00000000000000     0.00000000000000    -0.10467412880800     0.00000000000000
    5     0.00000000000000     0.00000000000000     0.00000000000000    -0.31402238642400
    6    -0.56076606925640     0.00000000000000     0.00000000000000     0.00000000000000
    7     0.00000000000000    -0.56076606925640     0.00000000000000     0.00000000000000
    8     0.00000000000000     0.00000000000000    -0.56076606925640     0.00000000000000
    9     0.00000000000000     0.00000000000000     0.00000000000000    -1.68229820776921



  Quadrupole Moment: (Debye Ang)
    XX:    -4.0518     YY:    -4.0518     ZZ:    -4.0518
    XY:     0.0000     XZ:     0.0000     YZ:    -0.0000

  Traceless Quadrupole Moment: (Debye Ang)
    XX:    -0.0000     YY:     0.0000     ZZ:     0.0000
    XY:     0.0000     XZ:     0.0000     YZ:    -0.0000

  Mulliken Charges: (a.u.)
   Center  Symbol    Alpha    Beta     Spin     Total
       1    NE     5.00000  5.00000  0.00000  0.00000

   Total alpha =  5.00000, Total beta =  5.00000, Total charge =  0.00000



  Lowdin Charges [a.u.]:

   Center  Symbol    Alpha    Beta     Spin     Total
       1    NE     5.00000  5.00000  0.00000  0.00000

  Total alpha =  5.00000, Total beta =  5.00000, Total charge =  0.00000


  Mayer Bond Indices:

  Irrep: 1 Size: 1 x 1

                 1

    1     0.00000000000000



  Atomic Valences: 

 #  #
 Irrep: 1
      1:  0.0000000



  Wiberg Bond Indices using Orthogonal Lowdin Orbitals:

  Irrep: 1 Size: 1 x 1

                 1

    1     0.00000000000000



  Atomic Valences: 

 #  #
 Irrep: 1
      1:  0.0000000


  Saving occupied orbitals to File 180.
   => Loading Basis Set <=

    Role: BASIS
    Keyword: BASIS
    Name: 6-31G
    atoms 1 entry NE         line   142 file /usr/share/psi/basis/6-31g.gbs


*** tstop() called on ludger-InfinityBook13V3 at Fri Nov 10 12:41:42 2017
Module time:
	user time   =       0.24 seconds =       0.00 minutes
	system time =       0.16 seconds =       0.00 minutes
	total time  =          1 seconds =       0.02 minutes
Total time:
	user time   =       0.24 seconds =       0.00 minutes
	system time =       0.16 seconds =       0.00 minutes
	total time  =          1 seconds =       0.02 minutes

*** PSI4 exiting successfully. Buy a developer a beer!
